 Gaussian 16, Revision C.01,
 Gaussian 16:  ES64L-G16RevC.01  3-Jul-2019

 -------------------------------
 #PBE1PBE/6-311+G(d,p) NMR=Mixed
 -------------------------------

 -----------
 Poli(Se) 5U
 -----------
 Symbolic Z-matrix:
 Charge =  0 Multiplicity = 1

 SCF Done:  E(RPBE1PBE) =  -1144.43975969     A.U. after   14 cycles
 Normal termination of Gaussian 16 at Fri Dec 18 20:49:35 2020.

 ----------------------------------------------------------------------
 #P Geom=AllCheck Guess=TCheck SCRF=Check GenChk RPBE1PBE/ChkBas NMR=Re
 adFC IOp(3/6=22)
 ----------------------------------------------------------------------

 Structure from the checkpoint file:  "/scratch/local/Gau-93019.chk"
 -----------
 Poli(Se) 5U
 -----------
 Charge =  0 Multiplicity = 1

                         Standard orientation:
 ---------------------------------------------------------------------
 Center     Atomic      Atomic             Coordinates (Angstroms)
 Number     Number       Type             X           Y           Z
 ---------------------------------------------------------------------
      1          1           0       -0.000013    0.324455    8.962587
      2          6           0        0.000057   -1.494127    6.216330
      3          6           0        0.000032   -0.183615    5.831067
      4          8           0       -0.000071    0.624541    6.920654
      5          6           0        0.000020   -0.179172    8.009803
      6          6           0        0.000180   -1.484357    7.640231
      7          1           0        0.000080   -2.347957    5.557694
      8          1           0        0.000298   -2.336726    8.301970
      9          6           0        0.000035    1.774539    2.753239
     10          6           0       -0.000031    0.461888    2.367794
     11          8           0       -0.000018   -0.345190    3.460539
     12          6           0        0.000005    0.460523    4.553146
     13          6           0       -0.000071    1.772998    4.170295
     14          1           0        0.000071    2.626471    2.091991
     15          1           0       -0.000114    2.623007    4.834075
     16          6           0       -0.000071   -1.494275    0.708143
     17          6           0       -0.000051   -0.181084    1.092951
     18          8           0       -0.000042    0.625386   -0.000000
     19          6           0       -0.000051   -0.181084   -1.092951
     20          6           0       -0.000071   -1.494275   -0.708143
     21          1           0       -0.000080   -2.345516    1.370277
     22          1           0       -0.000080   -2.345516   -1.370277
     23          6           0       -0.000071    1.772998   -4.170295
     24          6           0        0.000005    0.460523   -4.553146
     25          8           0       -0.000018   -0.345190   -3.460539
     26          6           0       -0.000031    0.461888   -2.367794
     27          6           0        0.000035    1.774539   -2.753239
     28          1           0       -0.000114    2.623007   -4.834075
     29          1           0        0.000071    2.626471   -2.091991
     30          6           0        0.000057   -1.494127   -6.216330
     31          6           0        0.000032   -0.183615   -5.831067
     32          8           0       -0.000071    0.624541   -6.920654
     33          6           0        0.000020   -0.179172   -8.009803
     34          6           0        0.000180   -1.484357   -7.640231
     35          1           0        0.000080   -2.347957   -5.557694
     36          1           0        0.000298   -2.336726   -8.301970
     37          1           0       -0.000013    0.324455   -8.962587
 ---------------------------------------------------------------------

 SCF Done:  E(RPBE1PBE) =  -1144.38459966     A.U. after   10 cycles

      1  H    Isotropic =    24.2935   Anisotropy =     2.8500

      2  C    Isotropic =    79.4763   Anisotropy =   126.2575

      3  C    Isotropic =    36.7185   Anisotropy =    96.3890

      4  O    Isotropic =    50.1124   Anisotropy =   278.1257

      5  C    Isotropic =    43.2994   Anisotropy =    97.9948

      6  C    Isotropic =    72.3868   Anisotropy =   133.2405

      7  H    Isotropic =    24.9515   Anisotropy =     5.1864

      8  H    Isotropic =    25.2051   Anisotropy =     1.8449

      9  C    Isotropic =    77.2814   Anisotropy =   124.6822

     10  C    Isotropic =    38.3910   Anisotropy =    87.9447

     11  O    Isotropic =    68.6110   Anisotropy =   229.5569

     12  C    Isotropic =    37.7096   Anisotropy =    88.6331

     13  C    Isotropic =    77.1977   Anisotropy =   125.0947

     14  H    Isotropic =    24.9442   Anisotropy =     5.0487

     15  H    Isotropic =    24.9747   Anisotropy =     4.3984

     16  C    Isotropic =    77.2103   Anisotropy =   124.2844

     17  C    Isotropic =    38.0609   Anisotropy =    88.0354

     18  O    Isotropic =    69.5823   Anisotropy =   228.2494

     19  C    Isotropic =    38.0609   Anisotropy =    88.0354

     20  C    Isotropic =    77.2103   Anisotropy =   124.2844

     21  H    Isotropic =    24.9401   Anisotropy =     5.0247

     22  H    Isotropic =    24.9401   Anisotropy =     5.0247

     23  C    Isotropic =    77.1977   Anisotropy =   125.0947

     24  C    Isotropic =    37.7096   Anisotropy =    88.6331

     25  O    Isotropic =    68.6110   Anisotropy =   229.5569

     26  C    Isotropic =    38.3910   Anisotropy =    87.9447

     27  C    Isotropic =    77.2814   Anisotropy =   124.6822

     28  H    Isotropic =    24.9747   Anisotropy =     4.3984

     29  H    Isotropic =    24.9442   Anisotropy =     5.0487

     30  C    Isotropic =    79.4763   Anisotropy =   126.2575

     31  C    Isotropic =    36.7185   Anisotropy =    96.3890

     32  O    Isotropic =    50.1124   Anisotropy =   278.1257

     33  C    Isotropic =    43.2994   Anisotropy =    97.9948

     34  C    Isotropic =    72.3868   Anisotropy =   133.2405

     35  H    Isotropic =    24.9515   Anisotropy =     5.1864

     36  H    Isotropic =    25.2051   Anisotropy =     1.8449

     37  H    Isotropic =    24.2935   Anisotropy =     2.8500

 The electronic state is 1-A'.
 Alpha  occ. eigenvalues --  -19.28391 -19.28370 -19.28370 -19.28271 -19.28271
 Alpha  occ. eigenvalues --  -10.29569 -10.29569 -10.29499 -10.29499 -10.29498
 Alpha  occ. eigenvalues --  -10.29498 -10.29227 -10.29227 -10.28115 -10.28115
 Alpha  occ. eigenvalues --  -10.23442 -10.23392 -10.23386 -10.23385 -10.23314
 Alpha  occ. eigenvalues --  -10.23314 -10.23207 -10.23207 -10.23135 -10.23135
 Alpha  occ. eigenvalues --   -1.16985  -1.16676  -1.16296  -1.15957  -1.15804
 Alpha  occ. eigenvalues --   -0.85890  -0.85120  -0.84489  -0.84402  -0.83787
 Alpha  occ. eigenvalues --   -0.83769  -0.82793  -0.80168  -0.76659  -0.72972
 Alpha  occ. eigenvalues --   -0.66499  -0.66217  -0.64796  -0.64029  -0.62379
 Alpha  occ. eigenvalues --   -0.61658  -0.60818  -0.58156  -0.57994  -0.57920
 Alpha  occ. eigenvalues --   -0.57856  -0.57602  -0.55816  -0.51764  -0.50984
 Alpha  occ. eigenvalues --   -0.50135  -0.48919  -0.48436  -0.47589  -0.46627
 Alpha  occ. eigenvalues --   -0.46614  -0.45798  -0.45509  -0.45220  -0.44984
 Alpha  occ. eigenvalues --   -0.43043  -0.42932  -0.42450  -0.42268  -0.41688
 Alpha  occ. eigenvalues --   -0.41371  -0.41259  -0.40388  -0.39779  -0.39545
 Alpha  occ. eigenvalues --   -0.39505  -0.32816  -0.31480  -0.31009  -0.30849
 Alpha  occ. eigenvalues --   -0.30596  -0.30467  -0.29228  -0.25914  -0.22145
 Alpha  occ. eigenvalues --   -0.18870
 Alpha virt. eigenvalues --   -0.06164  -0.03526  -0.00816   0.00925   0.01438
 Alpha virt. eigenvalues --    0.01655   0.02055   0.02368   0.03055   0.03145
 Alpha virt. eigenvalues --    0.03786   0.03947   0.04332   0.04340   0.04884

 Mulliken charges:
               1
     1  H    0.141839
     2  C   -0.192635
     3  C    0.268749
     4  O   -0.008884
     5  C   -0.059462
     6  C   -0.365473
     7  H    0.151273
     8  H    0.148661
     9  C   -0.592414
    10  C    0.387051
    11  O    0.033980
    12  C    0.675293
    13  C   -0.714709
    14  H    0.154114
    15  H    0.151670
    16  C   -0.896635
    17  C    0.547083
    18  O    0.034049
    19  C    0.547083
    20  C   -0.896635
    21  H    0.153471
    22  H    0.153471
    23  C   -0.714709
    24  C    0.675293
    25  O    0.033980
    26  C    0.387051
    27  C   -0.592414
    28  H    0.151670
    29  H    0.154114
    30  C   -0.192635
    31  C    0.268749
    32  O   -0.008884
    33  C   -0.059462
    34  C   -0.365473
    35  H    0.151273
    36  H    0.148661
    37  H    0.141839
 Sum of Mulliken charges =  -0.00000

 Dipole moment (field-independent basis, Debye):
    X=              0.0002    Y=             -0.6799    Z=             -0.0000  Tot=              0.6799
 Quadrupole moment (field-independent basis, Debye-Ang):
   XX=           -150.6461   YY=           -125.6155   ZZ=           -108.4963
   XY=             -0.0007   XZ=             -0.0000   YZ=              0.0000

 Normal termination of Gaussian 16 at Fri Dec 18 21:19:09 2020.
