 Gaussian 16, Revision C.01,
 Gaussian 16:  ES64L-G16RevC.01  3-Jul-2019

 ---------------------------------
 #PBE1PBE/6-311G(d,p) nmr=spinspin
 ---------------------------------

 -------------
 Polifurano 3U
 -------------
 Symbolic Z-matrix:
 Charge =  0 Multiplicity = 1

                         Standard orientation:
 ---------------------------------------------------------------------
 Center     Atomic      Atomic             Coordinates (Angstroms)
 Number     Number       Type             X           Y           Z
 ---------------------------------------------------------------------
      1          1           0       -0.415449   -0.000110    5.502552
      2          6           0        1.402200   -0.000065    2.755583
      3          6           0        0.091751    0.000001    2.370763
      4          8           0       -0.715975   -0.000019    3.460549
      5          6           0        0.088002   -0.000072    4.549718
      6          6           0        1.392926    0.000094    4.179733
      7          1           0        2.255690   -0.000094    2.096524
      8          1           0        2.245504    0.000184    4.841236
      9          6           0       -1.864563    0.000035    0.709123
     10          6           0       -0.552925    0.000019    1.092522
     11          8           0        0.253219    0.000014    0.000000
     12          6           0       -0.552925    0.000019   -1.092522
     13          6           0       -1.864563    0.000035   -0.709123
     14          1           0       -2.715170    0.000042    1.372138
     15          1           0       -2.715170    0.000042   -1.372138
     16          6           0        1.392926    0.000094   -4.179733
     17          6           0        0.088002   -0.000072   -4.549718
     18          8           0       -0.715975   -0.000019   -3.460549
     19          6           0        0.091751    0.000001   -2.370763
     20          6           0        1.402200   -0.000065   -2.755583
     21          1           0        2.245504    0.000184   -4.841236
     22          1           0        2.255690   -0.000094   -2.096524
     23          1           0       -0.415449   -0.000110   -5.502552
 ---------------------------------------------------------------------

 SCF Done:  E(RPBE1PBE) =  -687.091280323     A.U. after   13 cycles

      1  H    Isotropic =    24.4326   Anisotropy =     2.8253

      2  C    Isotropic =    80.4810   Anisotropy =   125.5903

      3  C    Isotropic =    38.7385   Anisotropy =    95.0640

      4  O    Isotropic =    51.9285   Anisotropy =   283.6428

      5  C    Isotropic =    44.4852   Anisotropy =    96.6230

      6  C    Isotropic =    73.3293   Anisotropy =   132.7674

      7  H    Isotropic =    25.0164   Anisotropy =     4.8127

      8  H    Isotropic =    25.2805   Anisotropy =     1.7368

      9  C    Isotropic =    78.2996   Anisotropy =   124.3933

     10  C    Isotropic =    39.6461   Anisotropy =    87.6178

     11  O    Isotropic =    71.2067   Anisotropy =   233.0573

     12  C    Isotropic =    39.6461   Anisotropy =    87.6178

     13  C    Isotropic =    78.2996   Anisotropy =   124.3933

     14  H    Isotropic =    25.0477   Anisotropy =     4.0214

     15  H    Isotropic =    25.0477   Anisotropy =     4.0214

     16  C    Isotropic =    73.3293   Anisotropy =   132.7674

     17  C    Isotropic =    44.4852   Anisotropy =    96.6230

     18  O    Isotropic =    51.9285   Anisotropy =   283.6428

     19  C    Isotropic =    38.7385   Anisotropy =    95.0640

     20  C    Isotropic =    80.4810   Anisotropy =   125.5903

     21  H    Isotropic =    25.2805   Anisotropy =     1.7368

     22  H    Isotropic =    25.0164   Anisotropy =     4.8127

     23  H    Isotropic =    24.4326   Anisotropy =     2.8253

 The electronic state is 1-A'.
 Alpha  occ. eigenvalues --  -19.27693 -19.27579 -19.27579 -10.28902 -10.28901
 Alpha  occ. eigenvalues --  -10.28690 -10.28690 -10.27580 -10.27580 -10.22767
 Alpha  occ. eigenvalues --  -10.22717 -10.22680 -10.22679 -10.22591 -10.22591
 Alpha  occ. eigenvalues --   -1.16279  -1.15664  -1.15297  -0.84578  -0.84079
 Alpha  occ. eigenvalues --   -0.83210  -0.82919  -0.79231  -0.73613  -0.65115
 Alpha  occ. eigenvalues --   -0.64652  -0.62389  -0.61340  -0.57739  -0.57422
 Alpha  occ. eigenvalues --   -0.57314  -0.55776  -0.50040  -0.49855  -0.48219
 Alpha  occ. eigenvalues --   -0.46415  -0.46228  -0.45032  -0.44613  -0.42635
 Alpha  occ. eigenvalues --   -0.42346  -0.41688  -0.40973  -0.40376  -0.39244
 Alpha  occ. eigenvalues --   -0.38962  -0.31250  -0.30486  -0.30022  -0.29701
 Alpha  occ. eigenvalues --   -0.25278  -0.19674
 Alpha virt. eigenvalues --   -0.04169   0.00412   0.04771   0.06039   0.06693
 Alpha virt. eigenvalues --    0.07645   0.08487   0.09177   0.10357   0.10514
 Alpha virt. eigenvalues --    0.11568   0.11865   0.12746   0.12769   0.13615

 Mulliken charges:
               1
     1  H    0.114089
     2  C   -0.109040
     3  C    0.097636
     4  O   -0.261643
     5  C    0.072341
     6  C   -0.183262
     7  H    0.108188
     8  H    0.113259
     9  C   -0.110785
    10  C    0.197890
    11  O   -0.299390
    12  C    0.197890
    13  C   -0.110785
    14  H    0.111023
    15  H    0.111023
    16  C   -0.183262
    17  C    0.072341
    18  O   -0.261643
    19  C    0.097636
    20  C   -0.109040
    21  H    0.113259
    22  H    0.108188
    23  H    0.114089
 Sum of Mulliken charges =  -0.00000

 Dipole moment (field-independent basis, Debye):
    X=              0.5892    Y=             -0.0000    Z=              0.0000  Tot=              0.5892
 Quadrupole moment (field-independent basis, Debye-Ang):
   XX=            -76.1827   YY=            -90.5711   ZZ=            -65.6814
   XY=              0.0004   XZ=              0.0000   YZ=             -0.0000

 Normal termination of Gaussian 16 at Wed Dec 16 23:46:07 2020.
